LAMMPS (2 Jul 2021)
# NaCl test problem for embedded atom method (EIM) potential

units		metal

boundary	p p p

box tilt large


atom_style      atomic

read_data       data.gan
Reading data file ...
  triclinic box = (0.0000000 0.0000000 0.0000000) to (9.5700002 8.2878632 15.567000) with tilt (-4.7850001 0.0000000 0.0000000)
  1 by 1 by 1 MPI processor grid
  reading atoms ...
  108 atoms
  read_data CPU = 0.003 seconds

pair_style      tersoff
pair_coeff      * * GaN.tersoff  Ga N
Reading tersoff potential file GaN.tersoff with DATE: 2007-10-22

variable        t equal 2000

neighbor	0.3 bin

timestep        0.001

thermo_style    custom step etotal temp vol press
thermo          1000

velocity        all create $t 3627941 dist gaussian mom yes
velocity        all create 2000 3627941 dist gaussian mom yes
velocity          all scale $t
velocity          all scale 2000

fix             int all nvt temp $t $t 0.5  #between 0.2-2.0
fix             int all nvt temp 2000 $t 0.5  
fix             int all nvt temp 2000 2000 0.5  

run             10000
Neighbor list info ...
  update every 1 steps, delay 10 steps, check yes
  max neighbors/atom: 2000, page size: 100000
  master list distance cutoff = 3.4
  ghost atom cutoff = 3.4
  binsize = 1.7, bins = 9 5 10
  1 neighbor lists, perpetual/occasional/extra = 1 0 0
  (1) pair tersoff, perpetual
      attributes: full, newton on
      pair build: full/bin/atomonly
      stencil: full/bin/3d
      bin: standard
Per MPI rank memory allocation (min/avg/max) = 3.070 | 3.070 | 3.070 Mbytes
Step TotEng Temp Volume Press 
       0   -461.30525         2000    1234.6943    14400.541 
    1000   -450.81683     1329.837    1234.6943     2452.045 
    2000   -434.74824    1963.1793    1234.6943    30435.619 
    3000   -427.21518    2209.6602    1234.6943    17407.871 
    4000   -435.25347    1768.1085    1234.6943    29728.858 
    5000   -433.15951    2166.0031    1234.6943    33503.596 
    6000   -428.53303     1990.174    1234.6943    42503.511 
    7000   -435.21203    1902.3499    1234.6943    31670.574 
    8000   -432.84116    1992.9602    1234.6943    61979.938 
    9000   -421.01819    2299.2859    1234.6943    58515.222 
   10000   -424.57293    2166.1891    1234.6943    41064.508 
Loop time of 5.15814 on 1 procs for 10000 steps with 108 atoms

Performance: 167.502 ns/day, 0.143 hours/ns, 1938.683 timesteps/s
99.7% CPU use with 1 MPI tasks x no OpenMP threads

MPI task timing breakdown:
Section |  min time  |  avg time  |  max time  |%varavg| %total
---------------------------------------------------------------
Pair    | 4.9734     | 4.9734     | 4.9734     |   0.0 | 96.42
Neigh   | 0.12727    | 0.12727    | 0.12727    |   0.0 |  2.47
Comm    | 0.025143   | 0.025143   | 0.025143   |   0.0 |  0.49
Output  | 0.00030004 | 0.00030004 | 0.00030004 |   0.0 |  0.01
Modify  | 0.025539   | 0.025539   | 0.025539   |   0.0 |  0.50
Other   |            | 0.006463   |            |       |  0.13

Nlocal:        108.000 ave         108 max         108 min
Histogram: 1 0 0 0 0 0 0 0 0 0
Nghost:        358.000 ave         358 max         358 min
Histogram: 1 0 0 0 0 0 0 0 0 0
Neighs:         0.00000 ave           0 max           0 min
Histogram: 1 0 0 0 0 0 0 0 0 0
FullNghs:      1646.00 ave        1646 max        1646 min
Histogram: 1 0 0 0 0 0 0 0 0 0

Total # of neighbors = 1646
Ave neighs/atom = 15.240741
Neighbor list builds = 1000
Dangerous builds = 1000
dump            dynaphopy all custom 1 gan_${t}_test.lammpstrj vx vy vz
dump            dynaphopy all custom 1 gan_2000_test.lammpstrj vx vy vz
dump_modify     dynaphopy sort id

run             50000
Per MPI rank memory allocation (min/avg/max) = 4.326 | 4.326 | 4.326 Mbytes
Step TotEng Temp Volume Press 
   10000   -424.57293    2166.1891    1234.6943    41064.508 
   11000   -434.50142    2048.9363    1234.6943    12202.314 
   12000    -433.7775     2035.718    1234.6943    37875.772 
   13000   -428.70815     2354.436    1234.6943    38506.945 
   14000   -437.04769    1744.3925    1234.6943    32487.467 
   15000   -431.85701    2042.2888    1234.6943    28513.291 
   16000   -432.15782    2021.7191    1234.6943    28732.342 
   17000   -437.61757    1668.5073    1234.6943    35258.522 
   18000   -431.61891    2070.6043    1234.6943    27861.619 
   19000    -432.3542    2161.8181    1234.6943    35326.999 
   20000    -438.5675    1720.0262    1234.6943    35760.828 
   21000   -432.11158    2056.0324    1234.6943    35813.668 
   22000    -432.4233    1982.0814    1234.6943    48988.172 
   23000   -438.13442    1812.2442    1234.6943    13356.671 
   24000   -431.32842    2173.4131    1234.6943    19469.052 
   25000   -432.05345    2214.0974    1234.6943    26990.309 
   26000   -437.94962    1857.1552    1234.6943    18537.479 
   27000   -430.37127    1975.8919    1234.6943    43763.383 
   28000   -432.06838    1880.2906    1234.6943    37667.725 
   29000   -436.12827    1624.6909    1234.6943    31508.734 
   30000   -427.08311      2176.57    1234.6943    48948.771 
   31000   -433.63047    1767.1573    1234.6943    43081.401 
   32000   -433.80776    2061.1629    1234.6943    51079.955 
   33000   -427.46607    2112.8158    1234.6943    39954.274 
   34000   -432.20075    2273.3011    1234.6943    37567.575 
   35000    -433.6123    1837.0003    1234.6943    8510.2213 
   36000   -428.04026    2318.8303    1234.6943    45331.459 
   37000    -434.0572    2012.1533    1234.6943    29136.792 
   38000    -433.8276    2132.9333    1234.6943    34847.438 
   39000   -426.61937    2262.6006    1234.6943    37094.897 
   40000   -427.21546     2207.961    1234.6943    36596.144 
   41000   -433.94359    1803.5903    1234.6943     40336.86 
   42000   -434.95379    1942.4332    1234.6943    31353.864 
   43000   -428.00977    2105.1592    1234.6943    25975.966 
   44000   -433.35633    2082.2608    1234.6943    35021.891 
   45000   -432.95188    1967.0437    1234.6943    44109.756 
   46000   -430.90959    2199.5219    1234.6943    36234.778 
   47000   -429.37538    2257.3909    1234.6943    48342.605 
   48000   -435.62797    2007.1482    1234.6943     32086.81 
   49000   -428.03129    2078.2226    1234.6943    29308.483 
   50000   -430.16852    2079.2729    1234.6943    53211.647 
   51000   -434.71326    1995.3058    1234.6943    6434.2743 
   52000   -428.55217    2197.4523    1234.6943    25135.061 
   53000   -430.96699    2180.1985    1234.6943    58698.224 
   54000   -433.59747    2179.7617    1234.6943    19759.306 
   55000   -429.35805    1942.6596    1234.6943     60225.89 
   56000   -428.32851    2297.2304    1234.6943    43064.986 
   57000   -433.58747    1998.7815    1234.6943    35738.263 
   58000   -431.63223    2078.8566    1234.6943    18055.299 
   59000   -428.02283    1961.3873    1234.6943    35421.688 
   60000   -435.71396    1833.0549    1234.6943    17688.555 
Loop time of 30.9165 on 1 procs for 50000 steps with 108 atoms

Performance: 139.731 ns/day, 0.172 hours/ns, 1617.257 timesteps/s
99.0% CPU use with 1 MPI tasks x no OpenMP threads

MPI task timing breakdown:
Section |  min time  |  avg time  |  max time  |%varavg| %total
---------------------------------------------------------------
Pair    | 24.181     | 24.181     | 24.181     |   0.0 | 78.21
Neigh   | 0.61938    | 0.61938    | 0.61938    |   0.0 |  2.00
Comm    | 0.12391    | 0.12391    | 0.12391    |   0.0 |  0.40
Output  | 5.8229     | 5.8229     | 5.8229     |   0.0 | 18.83
Modify  | 0.13152    | 0.13152    | 0.13152    |   0.0 |  0.43
Other   |            | 0.03787    |            |       |  0.12

Nlocal:        108.000 ave         108 max         108 min
Histogram: 1 0 0 0 0 0 0 0 0 0
Nghost:        349.000 ave         349 max         349 min
Histogram: 1 0 0 0 0 0 0 0 0 0
Neighs:         0.00000 ave           0 max           0 min
Histogram: 1 0 0 0 0 0 0 0 0 0
FullNghs:      1672.00 ave        1672 max        1672 min
Histogram: 1 0 0 0 0 0 0 0 0 0

Total # of neighbors = 1672
Ave neighs/atom = 15.481481
Neighbor list builds = 5000
Dangerous builds = 5000
Total wall time: 0:00:36
